ITEM: TIMESTEP
0
ITEM: NUMBER OF ATOMS
42
ITEM: BOX BOUNDS pp pp pp
0.0000000000000000e+00 2.0000000000000000e+01
0.0000000000000000e+00 2.0000000000000000e+01
-1.0000000000000001e-01 1.0000000000000001e-01
ITEM: ATOMS id type x y vx vy
1 1 0 0 0.796392 0.0110715
3 1 3.39809 0 -0.144478 -1.47804
5 1 6.79618 0 0.13412 0.503592
7 1 10.1943 0 -0.714252 -0.241713
9 1 13.5924 0 -0.188562 -1.57953
11 1 16.9904 0 -0.800818 1.3966
2 1 1.69904 2.94283 -0.73887 0.371876
4 1 5.09713 2.94283 0.343317 0.66063
6 1 8.49522 2.94283 1.60514 0.253958
8 1 11.8933 2.94283 -0.312959 -1.66738
10 1 15.2914 2.94283 0.612195 -0.626332
12 1 18.6895 2.94283 -1.23817 -0.489472
13 1 0 5.88566 -0.962971 0.837203
15 1 3.39809 5.88566 1.34656 -1.14458
17 1 6.79618 5.88566 -1.2386 -1.54765
19 1 10.1943 5.88566 -0.838745 1.18852
21 1 13.5924 5.88566 0.0785727 -0.770568
23 1 16.9904 5.88566 1.65168 0.837543
14 1 1.69904 8.82849 -0.354371 -0.791619
16 1 5.09713 8.82849 0.324033 -0.112216
18 1 8.49522 8.82849 1.07713 0.25617
20 1 11.8933 8.82849 0.925548 -1.53132
22 1 15.2914 8.82849 -0.00346966 -1.58637
24 1 18.6895 8.82849 -0.294802 -0.98946
25 1 0 11.7713 0.65815 -0.478176
27 1 3.39809 11.7713 -0.420758 0.969628
29 1 6.79618 11.7713 0.809731 1.32135
31 1 10.1943 11.7713 1.41861 1.18748
33 1 13.5924 11.7713 -0.424476 1.26757
35 1 16.9904 11.7713 1.49682 0.486269
26 1 1.69904 14.7142 -1.08839 -0.684819
28 1 5.09713 14.7142 1.06133 -1.54239
30 1 8.49522 14.7142 -1.23158 0.453592
32 1 11.8933 14.7142 -0.966197 -0.0128971
34 1 15.2914 14.7142 0.377853 0.366425
36 1 18.6895 14.7142 -1.24299 0.167335
37 1 0 17.657 0.294585 0.937855
38 1 3.39809 17.657 -0.655511 1.33405
39 1 6.79618 17.657 -0.657164 -1.33013
40 1 10.1943 17.657 0.0377811 1.10988
41 1 13.5924 17.657 -0.489466 1.38205
42 1 16.9904 17.657 -0.0419599 1.30402
ITEM: TIMESTEP
10
ITEM: NUMBER OF ATOMS
42
ITEM: BOX BOUNDS pp pp pp
0.0000000000000000e+00 2.0000000000000000e+01
0.0000000000000000e+00 2.0000000000000000e+01
-1.0000000000000001e-01 1.0000000000000001e-01
ITEM: ATOMS id type x y vx vy
1 1 0.0398193 0.000473524 0.796374 0.00779238
3 1 3.39086 -0.0739902 -0.144501 -1.48185
5 1 6.80288 0.0251095 0.134099 0.500909
7 1 10.1586 -0.0121674 -0.714223 -0.245101
9 1 13.5829 -0.0790656 -0.188576 -1.58339
11 1 16.9504 0.069754 -0.800793 1.39357
2 1 1.6621 2.96142 -0.73887 0.371876
4 1 5.1143 2.97586 0.343317 0.66063
6 1 8.57548 2.95553 1.60514 0.253958
8 1 11.8777 2.85946 -0.312959 -1.66738
10 1 15.322 2.91151 0.612195 -0.626332
12 1 18.6276 2.91836 -1.23817 -0.489472
13 1 -0.0481486 5.92752 -0.962971 0.837203
15 1 3.46542 5.82843 1.34656 -1.14458
17 1 6.73425 5.80828 -1.2386 -1.54765
19 1 10.1523 5.94509 -0.838745 1.18852
21 1 13.5963 5.84713 0.0785727 -0.770568
23 1 17.073 5.92754 1.65168 0.837543
14 1 1.68133 8.78891 -0.354371 -0.791619
16 1 5.11333 8.82288 0.324033 -0.112216
18 1 8.54908 8.8413 1.07713 0.25617
20 1 11.9396 8.75193 0.925548 -1.53132
22 1 15.2912 8.74917 -0.00346966 -1.58637
24 1 18.6747 8.77902 -0.294802 -0.98946
25 1 0.0329075 11.7474 0.65815 -0.478176
27 1 3.37705 11.8198 -0.420758 0.969628
29 1 6.83666 11.8374 0.809731 1.32135
31 1 10.2652 11.8307 1.41861 1.18748
33 1 13.5711 11.8347 -0.424476 1.26757
35 1 17.0653 11.7956 1.49682 0.486269
26 1 1.64462 14.6799 -1.08839 -0.684819
28 1 5.1502 14.637 1.06133 -1.54239
30 1 8.43364 14.7368 -1.23158 0.453592
32 1 11.845 14.7135 -0.966197 -0.0128971
34 1 15.3103 14.7325 0.377853 0.366425
36 1 18.6273 14.7225 -1.24299 0.167335
37 1 0.0147296 17.704 0.294604 0.941134
38 1 3.36531 17.7238 -0.655488 1.33785
39 1 6.76332 17.5905 -0.657143 -1.32745
40 1 10.1962 17.7126 0.0377524 1.11327
41 1 13.5679 17.7262 -0.489452 1.38591
42 1 16.9883 17.7223 -0.0419844 1.30705
ITEM: TIMESTEP
20
ITEM: NUMBER OF ATOMS
42
ITEM: BOX BOUNDS pp pp pp
0.0000000000000000e+00 2.0000000000000000e+01
0.0000000000000000e+00 2.0000000000000000e+01
-1.0000000000000001e-01 1.0000000000000001e-01
ITEM: ATOMS id type x y vx vy
1 1 0.0796367 0.000771137 0.796311 0.0040218
3 1 3.38364 19.8518 -0.144611 -1.48777
5 1 6.80959 0.050104 0.134065 0.499313
7 1 10.1228 19.9755 -0.714117 -0.249256
9 1 13.5735 19.8416 -0.188644 -1.58954
11 1 16.9104 0.139357 -0.800721 1.39057
2 1 1.62516 2.98002 -0.73887 0.371876
4 1 5.13146 3.00889 0.343317 0.66063
6 1 8.65574 2.96823 1.60514 0.253958
8 1 11.862 2.77609 -0.312959 -1.66738
10 1 15.3526 2.8802 0.612195 -0.626332
12 1 18.5657 2.89388 -1.23817 -0.489472
13 1 19.9037 5.96938 -0.962971 0.837203
15 1 3.53274 5.7712 1.34656 -1.14458
17 1 6.67232 5.7309 -1.2386 -1.54765
19 1 10.1104 6.00451 -0.838745 1.18852
21 1 13.6002 5.80861 0.0785727 -0.770568
23 1 17.1556 5.96942 1.65168 0.837543
14 1 1.66361 8.74933 -0.354371 -0.791619
16 1 5.12954 8.81727 0.324033 -0.112216
18 1 8.60293 8.85411 1.07713 0.25617
20 1 11.9859 8.67536 0.925548 -1.53132
22 1 15.2911 8.66986 -0.00346966 -1.58637
24 1 18.66 8.72955 -0.294802 -0.98946
25 1 0.065815 11.7235 0.65815 -0.478176
27 1 3.35601 11.8683 -0.420758 0.969628
29 1 6.87715 11.9035 0.809731 1.32135
31 1 10.3361 11.8901 1.41861 1.18748
33 1 13.5499 11.8981 -0.424476 1.26757
35 1 17.1401 11.82 1.49682 0.486269
26 1 1.59021 14.6457 -1.08839 -0.684819
28 1 5.20327 14.5599 1.06133 -1.54239
30 1 8.37206 14.7595 -1.23158 0.453592
32 1 11.7967 14.7129 -0.966197 -0.0128971
34 1 15.3292 14.7508 0.377853 0.366425
36 1 18.5652 14.7309 -1.24299 0.167335
37 1 0.0294611 17.7511 0.294667 0.944905
38 1 3.33254 17.7908 -0.655378 1.34378
39 1 6.73046 17.5242 -0.657108 -1.32586
40 1 10.198 17.7683 0.0376464 1.11742
41 1 13.5434 17.7956 -0.489384 1.39206
42 1 16.9862 17.7877 -0.0420568 1.31004
ITEM: TIMESTEP
30
ITEM: NUMBER OF ATOMS
42
ITEM: BOX BOUNDS pp pp pp
0.0000000000000000e+00 2.0000000000000000e+01
0.0000000000000000e+00 2.0000000000000000e+01
-1.0000000000000001e-01 1.0000000000000001e-01
ITEM: ATOMS id type x y vx vy
1 1 0.119449 0.000866192 0.796188 -0.00032591
3 1 3.3764 19.7772 -0.144921 -1.49723
5 1 6.81629 0.0750696 0.134065 0.499313
7 1 10.0871 19.9629 -0.713894 -0.254376
9 1 13.5641 19.7619 -0.188842 -1.59967
11 1 16.8703 0.208812 -0.800602 1.38763
2 1 1.58821 2.99861 -0.73887 0.371876
4 1 5.14863 3.04193 0.343317 0.66063
6 1 8.73599 2.98092 1.60514 0.253958
8 1 11.8464 2.69272 -0.312959 -1.66738
10 1 15.3832 2.84888 0.612195 -0.626332
12 1 18.5038 2.86941 -1.23817 -0.489472
13 1 19.8556 6.01124 -0.962971 0.837203
15 1 3.60007 5.71398 1.34656 -1.14458
17 1 6.61039 5.65351 -1.2386 -1.54765
19 1 10.0685 6.06394 -0.838745 1.18852
21 1 13.6041 5.77008 0.0785727 -0.770568
23 1 17.2382 6.01129 1.65168 0.837543
14 1 1.64589 8.70975 -0.354371 -0.791619
16 1 5.14574 8.81166 0.324033 -0.112216
18 1 8.65679 8.86692 1.07713 0.25617
20 1 12.0321 8.5988 0.925548 -1.53132
22 1 15.2909 8.59054 -0.00346966 -1.58637
24 1 18.6453 8.68007 -0.294802 -0.98946
25 1 0.0987226 11.6996 0.65815 -0.478176
27 1 3.33497 11.9168 -0.420758 0.969628
29 1 6.91764 11.9695 0.809731 1.32135
31 1 10.4071 11.9494 1.41861 1.18748
33 1 13.5287 11.9615 -0.424476 1.26757
35 1 17.215 11.8443 1.49682 0.486269
26 1 1.53579 14.6114 -1.08839 -0.684819
28 1 5.25633 14.4828 1.06133 -1.54239
30 1 8.31048 14.7822 -1.23158 0.453592
32 1 11.7484 14.7122 -0.966197 -0.0128971
34 1 15.3481 14.7691 0.377853 0.366425
36 1 18.503 14.7393 -1.24299 0.167335
37 1 0.0441972 17.7985 0.29479 0.949252
38 1 3.29978 17.8582 -0.655068 1.35324
39 1 6.69761 17.4579 -0.657108 -1.32586
40 1 10.1999 17.8243 0.0374229 1.12254
41 1 13.5189 17.8654 -0.489187 1.40219
42 1 16.9841 17.8533 -0.0421754 1.31299
ITEM: TIMESTEP
40
ITEM: NUMBER OF ATOMS
42
ITEM: BOX BOUNDS pp pp pp
0.0000000000000000e+00 2.0000000000000000e+01
0.0000000000000000e+00 2.0000000000000000e+01
-1.0000000000000001e-01 1.0000000000000001e-01
ITEM: ATOMS id type x y vx vy
1 1 0.159254 0.000727332 0.795984 -0.00535403
3 1 3.36914 19.702 -0.145688 -1.51279
5 1 6.82299 0.100035 0.134065 0.499313
7 1 10.0515 19.95 -0.713495 -0.260713
9 1 13.5546 19.6815 -0.18935 -1.61693
11 1 16.8303 0.278121 -0.800439 1.38473
2 1 1.55127 3.01721 -0.73887 0.371876
4 1 5.1658 3.07496 0.343317 0.66063
6 1 8.81625 2.99362 1.60514 0.253958
8 1 11.8307 2.60936 -0.312959 -1.66738
10 1 15.4138 2.81756 0.612195 -0.626332
12 1 18.4419 2.84494 -1.23817 -0.489472
13 1 19.8074 6.0531 -0.963267 0.837203
15 1 3.6674 5.65675 1.34656 -1.14458
17 1 6.54846 5.57613 -1.2386 -1.54765
19 1 10.0265 6.12337 -0.838745 1.18852
21 1 13.6081 5.73155 0.0785727 -0.770568
23 1 17.3208 6.05317 1.65198 0.837543
14 1 1.62817 8.67017 -0.354371 -0.791619
16 1 5.16194 8.80605 0.324033 -0.112216
18 1 8.71065 8.87973 1.07713 0.25617
20 1 12.0784 8.52223 0.925548 -1.53132
22 1 15.2907 8.51122 -0.00346966 -1.58637
24 1 18.6305 8.6306 -0.294802 -0.98946
25 1 0.13163 11.6757 0.65815 -0.478176
27 1 3.31394 11.9652 -0.420758 0.969628
29 1 6.95812 12.0356 0.809731 1.32135
31 1 10.478 12.0088 1.41861 1.18748
33 1 13.5075 12.0248 -0.424476 1.26757
35 1 17.2898 11.8686 1.49682 0.486269
26 1 1.48137 14.5772 -1.08839 -0.684819
28 1 5.3094 14.4057 1.06133 -1.54239
30 1 8.24891 14.8049 -1.23158 0.453592
32 1 11.7001 14.7116 -0.966197 -0.0128971
34 1 15.367 14.7874 0.377853 0.366425
36 1 18.4409 14.7476 -1.24299 0.167335
37 1 0.0589414 17.846 0.294993 0.95428
38 1 3.26704 17.9262 -0.654301 1.3688
39 1 6.66475 17.3916 -0.657108 -1.32586
40 1 10.2018 17.8806 0.037024 1.12888
41 1 13.4945 17.9359 -0.488678 1.41945
42 1 16.982 17.919 -0.0423384 1.31588
ITEM: TIMESTEP
50
ITEM: NUMBER OF ATOMS
42
ITEM: BOX BOUNDS pp pp pp
0.0000000000000000e+00 2.0000000000000000e+01
0.0000000000000000e+00 2.0000000000000000e+01
-1.0000000000000001e-01 1.0000000000000001e-01
ITEM: ATOMS id type x y vx vy
1 1 0.199046 0.000317512 0.795674 -0.0111877
3 1 3.36181 19.6257 -0.147495 -1.53918
5 1 6.8297 0.125001 0.134065 0.499313
7 1 10.0158 19.9368 -0.712836 -0.268597
9 1 13.5451 19.6 -0.190605 -1.64736
11 1 16.7903 0.347286 -0.800234 1.38189
2 1 1.51433 3.0358 -0.73887 0.371876
4 1 5.18296 3.10799 0.343317 0.66063
6 1 8.89651 3.00632 1.60514 0.253958
8 1 11.8151 2.52599 -0.312959 -1.66738
10 1 15.4444 2.78625 0.612195 -0.626332
12 1 18.3799 2.82046 -1.23817 -0.489472
13 1 19.7592 6.09496 -0.96572 0.837203
15 1 3.73473 5.59952 1.34656 -1.14458
17 1 6.48653 5.49875 -1.2386 -1.54765
19 1 9.98458 6.18279 -0.838745 1.18852
21 1 13.612 5.69302 0.0785727 -0.770568
23 1 17.4034 6.09505 1.65443 0.837543
14 1 1.61045 8.63059 -0.354371 -0.791619
16 1 5.17814 8.80044 0.324033 -0.112216
18 1 8.7645 8.89254 1.07713 0.25617
20 1 12.1247 8.44566 0.925548 -1.53132
22 1 15.2905 8.4319 -0.00346966 -1.58637
24 1 18.6158 8.58113 -0.294802 -0.98946
25 1 0.164538 11.6518 0.65815 -0.478176
27 1 3.2929 12.0137 -0.420758 0.969628
29 1 6.99861 12.1017 0.809731 1.32135
31 1 10.5489 12.0682 1.41861 1.18748
33 1 13.4862 12.0882 -0.424476 1.26757
35 1 17.3646 11.8929 1.49682 0.486269
26 1 1.42695 14.5429 -1.08839 -0.684819
28 1 5.36247 14.3286 1.06133 -1.54239
30 1 8.18733 14.8276 -1.23158 0.453592
32 1 11.6518 14.7109 -0.966197 -0.0128971
34 1 15.3859 14.8058 0.377853 0.366425
36 1 18.3787 14.756 -1.24299 0.167335
37 1 0.0736983 17.8939 0.295303 0.960114
38 1 3.23437 17.9953 -0.652494 1.39519
39 1 6.6319 17.3253 -0.657108 -1.32586
40 1 10.2036 17.9372 0.0363653 1.13676
41 1 13.4701 18.0076 -0.487424 1.44988
42 1 16.9799 17.9849 -0.0425438 1.31873
ITEM: TIMESTEP
60
ITEM: NUMBER OF ATOMS
42
ITEM: BOX BOUNDS pp pp pp
0.0000000000000000e+00 2.0000000000000000e+01
0.0000000000000000e+00 2.0000000000000000e+01
-1.0000000000000001e-01 1.0000000000000001e-01
ITEM: ATOMS id type x y vx vy
1 1 0.238819 19.9996 0.795223 -0.0179796
3 1 3.35435 19.5477 -0.151686 -1.58507
5 1 6.8364 0.149967 0.134065 0.499313
7 1 9.98018 19.9231 -0.711795 -0.278454
9 1 13.5355 19.5164 -0.19365 -1.70241
11 1 16.7503 0.416311 -0.799988 1.3791
2 1 1.47738 3.05439 -0.73887 0.371876
4 1 5.20013 3.14102 0.343317 0.66063
6 1 8.97676 3.01902 1.60514 0.253958
8 1 11.7994 2.44262 -0.312959 -1.66738
10 1 15.4751 2.75493 0.612195 -0.626332
12 1 18.318 2.79599 -1.23817 -0.489472
13 1 19.7108 6.13682 -0.969328 0.837203
15 1 3.80206 5.54229 1.34656 -1.14458
17 1 6.4246 5.42137 -1.2386 -1.54765
19 1 9.94264 6.24222 -0.838745 1.18852
21 1 13.6159 5.65449 0.0785727 -0.770568
23 1 17.4862 6.13692 1.65804 0.837543
14 1 1.59273 8.59101 -0.354371 -0.791619
16 1 5.19434 8.79483 0.324033 -0.112216
18 1 8.81836 8.90534 1.07713 0.25617
20 1 12.171 8.3691 0.925548 -1.53132
22 1 15.2904 8.35258 -0.00346966 -1.58637
24 1 18.601 8.53165 -0.294802 -0.98946
25 1 0.197445 11.6279 0.65815 -0.478176
27 1 3.27186 12.0622 -0.420758 0.969628
29 1 7.0391 12.1677 0.809731 1.32135
31 1 10.6198 12.1276 1.41861 1.18748
33 1 13.465 12.1516 -0.424476 1.26757
35 1 17.4395 11.9172 1.49682 0.486269
26 1 1.37253 14.5087 -1.08839 -0.684819
28 1 5.41553 14.2514 1.06133 -1.54239
30 1 8.12575 14.8502 -1.23158 0.453592
32 1 11.6035 14.7103 -0.966197 -0.0128971
34 1 15.4048 14.8241 0.377853 0.366425
36 1 18.3166 14.7644 -1.24299 0.167335
37 1 0.088474 17.9421 0.295754 0.966906
38 1 3.20183 18.0661 -0.648303 1.44108
39 1 6.59904 17.2591 -0.657108 -1.32586
40 1 10.2054 17.9943 0.0353238 1.14662
41 1 13.4458 18.0813 -0.484378 1.50493
42 1 16.9778 18.0509 -0.0427897 1.32152
ITEM: TIMESTEP
70
ITEM: NUMBER OF ATOMS
42
ITEM: BOX BOUNDS pp pp pp
0.0000000000000000e+00 2.0000000000000000e+01
0.0000000000000000e+00 2.0000000000000000e+01
-1.0000000000000001e-01 1.0000000000000001e-01
ITEM: ATOMS id type x y vx vy
1 1 0.278565 19.9985 0.794586 -0.0259173
3 1 3.34656 19.4667 -0.161129 -1.66446
5 1 6.8431 0.174932 0.134065 0.499313
7 1 9.94463 19.9089 -0.710191 -0.290848
9 1 13.5257 19.4291 -0.200593 -1.79806
11 1 16.7103 0.485197 -0.799704 1.37637
2 1 1.44044 3.07299 -0.73887 0.371876
4 1 5.2173 3.17406 0.343658 0.661274
6 1 9.05702 3.03172 1.60514 0.253958
8 1 11.7838 2.35925 -0.312959 -1.66738
10 1 15.5057 2.72361 0.612195 -0.626332
12 1 18.2561 2.77152 -1.23817 -0.489472
13 1 19.6622 6.17868 -0.974757 0.837204
15 1 3.86938 5.48506 1.34666 -1.14458
17 1 6.36266 5.34398 -1.23904 -1.54829
19 1 9.9007 6.30164 -0.838745 1.18852
21 1 13.6199 5.61596 0.0785727 -0.770568
23 1 17.5693 6.1788 1.66347 0.837542
14 1 1.57501 8.55143 -0.354371 -0.791619
16 1 5.21054 8.78922 0.324033 -0.112216
18 1 8.87222 8.91815 1.07713 0.25617
20 1 12.2173 8.29253 0.925548 -1.53132
22 1 15.2902 8.27326 -0.00346966 -1.58637
24 1 18.5863 8.48218 -0.294802 -0.98946
25 1 0.230353 11.604 0.65815 -0.478176
27 1 3.25082 12.1107 -0.420758 0.969628
29 1 7.07958 12.2338 0.809731 1.32135
31 1 10.6908 12.1869 1.41861 1.18748
33 1 13.4438 12.215 -0.424476 1.26757
35 1 17.5143 11.9415 1.49682 0.486269
26 1 1.31811 14.4745 -1.08839 -0.684819
28 1 5.4686 14.1743 1.06133 -1.54239
30 1 8.06417 14.8729 -1.23158 0.453592
32 1 11.5551 14.7096 -0.966197 -0.0128971
34 1 15.4236 14.8424 0.377853 0.366425
36 1 18.2544 14.7727 -1.24299 0.167335
37 1 0.103277 17.9906 0.296392 0.974844
38 1 3.16962 18.1399 -0.63886 1.52047
39 1 6.56619 17.1928 -0.657108 -1.32586
40 1 10.2071 18.0519 0.0337201 1.15901
41 1 13.4217 18.1588 -0.477436 1.60058
42 1 16.9756 18.117 -0.043074 1.32425
ITEM: TIMESTEP
80
ITEM: NUMBER OF ATOMS
42
ITEM: BOX BOUNDS pp pp pp
0.0000000000000000e+00 2.0000000000000000e+01
0.0000000000000000e+00 2.0000000000000000e+01
-1.0000000000000001e-01 1.0000000000000001e-01
ITEM: ATOMS id type x y vx vy
1 1 0.318274 19.997 0.793701 -0.0352328
3 1 3.3381 19.3807 -0.178064 -1.77591
5 1 6.84981 0.199898 0.134065 0.499313
7 1 9.90917 19.894 -0.707761 -0.306523
9 1 13.5154 19.3366 -0.207524 -1.87565
11 1 16.6703 0.553968 -0.800052 1.37495
2 1 1.4035 3.09158 -0.73887 0.371876
4 1 5.23451 3.20718 0.344915 0.66368
6 1 9.13728 3.04441 1.60514 0.253958
8 1 11.7681 2.27588 -0.312959 -1.66738
10 1 15.5363 2.69228 0.612864 -0.627588
12 1 18.1942 2.74704 -1.23817 -0.489472
13 1 19.6133 6.22056 -0.983622 0.838256
15 1 3.93677 5.42783 1.34902 -1.14473
17 1 6.30063 5.26651 -1.24266 -1.55055
19 1 9.85877 6.36107 -0.838745 1.18852
21 1 13.6238 5.57743 0.0785727 -0.770568
23 1 17.6527 6.22071 1.67259 0.839318
14 1 1.5573 8.51185 -0.354371 -0.791619
16 1 5.22675 8.78361 0.324033 -0.112216
18 1 8.92607 8.93096 1.07713 0.25617
20 1 12.2635 8.21597 0.925548 -1.53132
22 1 15.29 8.19395 -0.00346966 -1.58637
24 1 18.5716 8.43266 -0.295065 -0.992288
25 1 0.26326 11.5801 0.65815 -0.478176
27 1 3.22979 12.1592 -0.420758 0.969628
29 1 7.12004 12.2999 0.808495 1.32278
31 1 10.7617 12.2463 1.41861 1.18748
33 1 13.4226 12.2784 -0.424476 1.26757
35 1 17.5892 11.9658 1.49682 0.486269
26 1 1.26369 14.4402 -1.08839 -0.684819
28 1 5.52169 14.0972 1.06257 -1.54382
30 1 8.00259 14.8956 -1.23158 0.453592
32 1 11.5068 14.709 -0.966197 -0.0128971
34 1 15.4425 14.8607 0.377853 0.366425
36 1 18.1923 14.7811 -1.24299 0.167335
37 1 0.118117 18.0396 0.297276 0.984159
38 1 3.13808 18.2187 -0.621925 1.63192
39 1 6.53333 17.1265 -0.657108 -1.32586
40 1 10.2088 18.1103 0.0312902 1.17469
41 1 13.3981 18.2414 -0.470505 1.67817
42 1 16.9735 18.1833 -0.0433946 1.32692
ITEM: TIMESTEP
90
ITEM: NUMBER OF ATOMS
42
ITEM: BOX BOUNDS pp pp pp
0.0000000000000000e+00 2.0000000000000000e+01
0.0000000000000000e+00 2.0000000000000000e+01
-1.0000000000000001e-01 1.0000000000000001e-01
ITEM: ATOMS id type x y vx vy
1 1 0.35793 19.9949 0.79249 -0.0462165
3 1 3.32942 19.2928 -0.13813 -1.59233
5 1 6.85651 0.224864 0.134065 0.499313
7 1 9.87387 19.8782 -0.704114 -0.326472
9 1 13.5069 19.2577 -0.0711215 -0.834239
11 1 16.6303 0.622711 -0.801061 1.37493
2 1 1.36655 3.11018 -0.73887 0.371876
4 1 5.25179 3.24045 0.346407 0.667908
6 1 9.21753 3.05711 1.60514 0.253958
8 1 11.7525 2.19251 -0.312959 -1.66738
10 1 15.567 2.66084 0.614228 -0.630181
12 1 18.1323 2.72257 -1.23817 -0.489472
13 1 19.5638 6.26253 -0.998016 0.840632
15 1 4.00431 5.37058 1.35282 -1.1456
17 1 6.23837 5.18891 -1.24795 -1.5539
19 1 9.81683 6.4205 -0.838745 1.18852
21 1 13.6277 5.53891 0.0785727 -0.770568
23 1 17.7366 6.26275 1.68704 0.842249
14 1 1.53958 8.47226 -0.354371 -0.791619
16 1 5.24295 8.778 0.324033 -0.112216
18 1 8.97993 8.94377 1.07713 0.25617
20 1 12.3098 8.1394 0.925548 -1.53132
22 1 15.2898 8.11463 -0.00346966 -1.58637
24 1 18.5568 8.38292 -0.295116 -0.997596
25 1 0.296168 11.5561 0.65815 -0.478176
27 1 3.20875 12.2077 -0.420758 0.969628
29 1 7.16042 12.3661 0.806437 1.325
31 1 10.8326 12.3057 1.41868 1.18777
33 1 13.4013 12.3417 -0.424476 1.26757
35 1 17.664 11.9901 1.49682 0.486269
26 1 1.20927 14.406 -1.08839 -0.684819
28 1 5.57487 14.0199 1.06463 -1.54604
30 1 7.94101 14.9183 -1.23158 0.453592
32 1 11.4585 14.7084 -0.966274 -0.013189
34 1 15.4614 14.879 0.377853 0.366425
36 1 18.1301 14.7895 -1.24299 0.167335
37 1 0.13301 18.0891 0.298488 0.995143
38 1 3.10676 18.2994 -0.661859 1.44834
39 1 6.50048 17.0602 -0.657108 -1.32586
40 1 10.2102 18.1695 0.0276433 1.19464
41 1 13.3727 18.3104 -0.606907 0.636758
42 1 16.9713 18.2497 -0.0437494 1.32953
ITEM: TIMESTEP
100
ITEM: NUMBER OF ATOMS
42
ITEM: BOX BOUNDS pp pp pp
0.0000000000000000e+00 2.0000000000000000e+01
0.0000000000000000e+00 2.0000000000000000e+01
-1.0000000000000001e-01 1.0000000000000001e-01
ITEM: ATOMS id type x y vx vy
1 1 0.397516 19.9923 0.790843 -0.0592346
3 1 3.33315 19.2556 0.3827 0.395535
5 1 6.86321 0.249829 0.134065 0.499313
7 1 9.83879 19.8612 -0.698667 -0.352038
9 1 13.5134 19.2814 0.279984 1.38858
11 1 16.5902 0.691482 -0.802556 1.37622
2 1 1.32961 3.12877 -0.73887 0.371876
4 1 5.26915 3.27402 0.347936 0.675617
6 1 9.29779 3.06981 1.60514 0.253958
8 1 11.7368 2.10914 -0.312959 -1.66738
10 1 15.5977 2.62924 0.616677 -0.633924
12 1 18.0704 2.69809 -1.23874 -0.489566
13 1 19.5133 6.30463 -1.0212 0.843805
15 1 4.0721 5.31324 1.35916 -1.14819
17 1 6.17579 5.11109 -1.25583 -1.55902
19 1 9.77489 6.47992 -0.838745 1.18852
21 1 13.6316 5.50038 0.0785727 -0.770568
23 1 17.8215 6.30496 1.7103 0.846535
14 1 1.52186 8.43268 -0.354371 -0.791619
16 1 5.25915 8.77238 0.324033 -0.112216
18 1 9.03379 8.95658 1.07713 0.25617
20 1 12.3561 8.06283 0.925548 -1.53132
22 1 15.2897 8.03531 -0.00346966 -1.58637
24 1 18.542 8.33286 -0.295193 -1.00505
25 1 0.329075 11.5322 0.65815 -0.478176
27 1 3.18771 12.2561 -0.420758 0.969628
29 1 7.20067 12.4324 0.803426 1.32801
31 1 10.9036 12.3651 1.41972 1.19003
33 1 13.3801 12.4051 -0.42498 1.26756
35 1 17.7389 12.0145 1.49682 0.486269
26 1 1.15485 14.3717 -1.08839 -0.684819
28 1 5.62818 13.9426 1.06868 -1.54861
30 1 7.87942 14.9409 -1.23267 0.453231
32 1 11.4102 14.7076 -0.96681 -0.015445
34 1 15.4803 14.8974 0.377853 0.366425
36 1 18.068 14.7978 -1.24299 0.167335
37 1 0.147973 18.1391 0.300134 1.00816
38 1 3.06303 18.3294 -1.18269 -0.539527
39 1 6.46762 16.9939 -0.657052 -1.32594
40 1 10.2115 18.2298 0.0221955 1.2202
41 1 13.3323 18.2768 -0.958013 -1.58606
42 1 16.9691 18.3162 -0.044136 1.33208
ITEM: TIMESTEP
110
ITEM: NUMBER OF ATOMS
42
ITEM: BOX BOUNDS pp pp pp
0.0000000000000000e+00 2.0000000000000000e+01
0.0000000000000000e+00 2.0000000000000000e+01
-1.0000000000000001e-01 1.0000000000000001e-01
ITEM: ATOMS id type x y vx vy
1 1 0.437005 19.989 0.788614 -0.0747553
3 1 3.36201 19.3071 0.662866 1.29538
5 1 6.86992 0.274795 0.134065 0.499313
7 1 9.80405 19.8429 -0.690537 -0.38504
9 1 13.5287 19.358 0.307198 1.53809
11 1 16.55 0.760403 -0.803599 1.38109
2 1 1.29267 3.14736 -0.73887 0.371876
4 1 5.28661 3.30808 0.350515 0.687338
6 1 9.37805 3.08251 1.60514 0.253958
8 1 11.7212 2.02577 -0.312959 -1.66738
10 1 15.6287 2.59742 0.621889 -0.639401
12 1 18.0084 2.67357 -1.24249 -0.491441
13 1 19.4614 6.34693 -1.05974 0.848106
15 1 4.14027 5.25574 1.36859 -1.15191
17 1 6.11272 5.03296 -1.26783 -1.56703
19 1 9.73296 6.53935 -0.838745 1.18852
21 1 13.6356 5.46185 0.0785727 -0.770568
23 1 17.9079 6.34744 1.74893 0.852907
14 1 1.50414 8.3931 -0.354371 -0.791619
16 1 5.27535 8.76677 0.324033 -0.112216
18 1 9.08764 8.96939 1.07713 0.25617
20 1 12.4024 7.98627 0.925548 -1.53132
22 1 15.2895 7.95599 -0.00346966 -1.58637
24 1 18.5273 8.28236 -0.295278 -1.01573
25 1 0.361983 11.5083 0.65815 -0.478176
27 1 3.16667 12.3046 -0.420758 0.969628
29 1 7.24074 12.4989 0.798993 1.33207
31 1 10.9746 12.4247 1.42266 1.19298
33 1 13.3588 12.4685 -0.427358 1.26752
35 1 17.8137 12.0388 1.49682 0.486269
26 1 1.10043 14.3375 -1.08839 -0.684819
28 1 5.68177 13.8651 1.07525 -1.55165
30 1 7.8177 14.9636 -1.23611 0.454072
32 1 11.3618 14.7068 -0.967368 -0.0183492
34 1 15.4992 14.9157 0.377853 0.366425
36 1 18.0058 14.8062 -1.24299 0.167335
37 1 0.163033 18.1899 0.302364 1.02368
38 1 2.99417 18.2706 -1.46285 -1.43938
39 1 6.4348 16.9275 -0.655754 -1.3278
40 1 10.2124 18.2916 0.0140659 1.25321
41 1 13.2831 18.1904 -0.985227 -1.73557
42 1 16.9669 18.3829 -0.0445519 1.33457
ITEM: TIMESTEP
120
ITEM: NUMBER OF ATOMS
42
ITEM: BOX BOUNDS pp pp pp
0.0000000000000000e+00 2.0000000000000000e+01
0.0000000000000000e+00 2.0000000000000000e+01
-1.0000000000000001e-01 1.0000000000000001e-01
ITEM: ATOMS id type x y vx vy
1 1 0.476364 19.9848 0.785599 -0.093384
3 1 3.39476 19.3709 0.636098 1.22683
5 1 6.87662 0.299761 0.134065 0.499313
7 1 9.76981 19.8226 -0.678387 -0.427955
9 1 13.5435 19.4321 0.283023 1.42913
11 1 16.5098 0.829646 -0.805527 1.38934
2 1 1.25572 3.16596 -0.73887 0.371876
4 1 5.30423 3.34287 0.354917 0.705724
6 1 9.4583 3.09521 1.60514 0.253958
8 1 11.7055 1.9424 -0.312959 -1.66738
10 1 15.6599 2.56526 0.629187 -0.647672
12 1 17.9461 2.64894 -1.24742 -0.493842
13 1 19.4069 6.38947 -1.12518 0.854052
15 1 4.20904 5.19802 1.38293 -1.15738
17 1 6.04889 4.95431 -1.28657 -1.57994
19 1 9.69101 6.5988 -0.839121 1.19006
21 1 13.6395 5.42332 0.0785727 -0.770568
23 1 17.9968 6.39031 1.81439 0.862543
14 1 1.48642 8.35352 -0.354371 -0.791619
16 1 5.29155 8.76116 0.324033 -0.112216
18 1 9.14151 8.98217 1.0775 0.254628
20 1 12.4486 7.9097 0.925548 -1.53132
22 1 15.2893 7.87667 -0.00346966 -1.58637
24 1 18.5125 8.23121 -0.295303 -1.03131
25 1 0.39489 11.4844 0.65815 -0.478176
27 1 3.14563 12.3531 -0.420758 0.969628
29 1 7.28054 12.5657 0.792674 1.33861
31 1 11.0459 12.4844 1.42631 1.19675
33 1 13.3374 12.5319 -0.43047 1.26746
35 1 17.8885 12.0631 1.49682 0.486269
26 1 1.04601 14.3033 -1.08839 -0.684819
28 1 5.73575 13.7874 1.08423 -1.55573
30 1 7.75579 14.9863 -1.24048 0.454019
32 1 11.3135 14.7058 -0.967904 -0.0220626
34 1 15.5181 14.934 0.379694 0.366338
36 1 17.9437 14.8146 -1.24483 0.167421
37 1 0.178223 18.2415 0.305379 1.04231
38 1 2.92143 18.1997 -1.43609 -1.37082
39 1 6.40205 16.8611 -0.654045 -1.3302
40 1 10.2128 18.3553 0.00191602 1.29612
41 1 13.2344 18.1064 -0.961051 -1.62661
42 1 16.9646 18.4497 -0.0449944 1.33698
ITEM: TIMESTEP
130
ITEM: NUMBER OF ATOMS
42
ITEM: BOX BOUNDS pp pp pp
0.0000000000000000e+00 2.0000000000000000e+01
0.0000000000000000e+00 2.0000000000000000e+01
-1.0000000000000001e-01 1.0000000000000001e-01
ITEM: ATOMS id type x y vx vy
1 1 0.515547 19.9796 0.781515 -0.115915
3 1 3.42553 19.4298 0.597078 1.1346
5 1 6.88332 0.324726 0.134065 0.499313
7 1 9.73631 19.7998 -0.660187 -0.484082
9 1 13.5571 19.5016 0.265924 1.35834
11 1 16.4695 0.899424 -0.808952 1.4029
2 1 1.21878 3.18455 -0.73887 0.371876
4 1 5.32215 3.37884 0.362534 0.735567
6 1 9.53857 3.1079 1.60574 0.253615
8 1 11.6899 1.85904 -0.313563 -1.66703
10 1 15.6916 2.53258 0.639619 -0.660472
12 1 17.8836 2.62418 -1.25396 -0.496944
13 1 19.3482 6.43237 -1.23102 0.862484
15 1 4.2787 5.13996 1.40533 -1.16576
17 1 5.98388 4.87482 -1.3166 -1.60141
19 1 9.64904 6.65836 -0.839639 1.19251
21 1 13.6434 5.38479 0.0785727 -0.770568
23 1 18.09 6.43378 1.91999 0.877371
14 1 1.4687 8.31394 -0.354371 -0.791619
16 1 5.30775 8.75555 0.324033 -0.112216
18 1 9.19539 8.99484 1.07802 0.252183
20 1 12.4949 7.83314 0.925548 -1.53132
22 1 15.2891 7.79735 -0.00346966 -1.58637
24 1 18.4978 8.1791 -0.295057 -1.05457
25 1 0.427798 11.4605 0.65815 -0.478176
27 1 3.1246 12.4016 -0.420758 0.969628
29 1 7.31996 12.6328 0.783408 1.34811
31 1 11.1173 12.5444 1.43087 1.20155
33 1 13.3157 12.5952 -0.434588 1.26737
35 1 17.9634 12.0874 1.49682 0.486269
26 1 0.991593 14.269 -1.08839 -0.684819
28 1 5.79025 13.7095 1.09662 -1.56121
30 1 7.69364 15.009 -1.24587 0.45309
32 1 11.2651 14.7046 -0.968344 -0.0267662
34 1 15.5372 14.9523 0.382378 0.366198
36 1 17.8814 14.8229 -1.24751 0.167561
37 1 0.193588 18.2942 0.309463 1.06484
38 1 2.85065 18.1336 -1.39707 -1.27859
39 1 6.3694 16.7945 -0.651771 -1.3333
40 1 10.2125 18.4214 -0.0162838 1.35225
41 1 13.1868 18.027 -0.943952 -1.55582
42 1 16.9624 18.5166 -0.0454604 1.33933
ITEM: TIMESTEP
140
ITEM: NUMBER OF ATOMS
42
ITEM: BOX BOUNDS pp pp pp
0.0000000000000000e+00 2.0000000000000000e+01
0.0000000000000000e+00 2.0000000000000000e+01
-1.0000000000000001e-01 1.0000000000000001e-01
ITEM: ATOMS id type x y vx vy
1 1 0.554491 19.9731 0.775961 -0.143409
3 1 3.4547 19.485 0.571929 1.07977
5 1 6.89003 0.349692 0.134065 0.499313
7 1 9.70393 19.7739 -0.632981 -0.557437
9 1 13.5702 19.5685 0.255849 1.31929
11 1 16.4289 0.970076 -0.81493 1.42502
2 1 1.18184 3.20314 -0.73887 0.371876
4 1 5.34058 3.41675 0.375787 0.78563
6 1 9.6189 3.12055 1.60754 0.252505
8 1 11.6742 1.77571 -0.315362 -1.66592
10 1 15.724 2.49909 0.654877 -0.680812
12 1 17.8207 2.59923 -1.26275 -0.500989
13 1 19.284 6.47578 -1.30483 0.874693
15 1 4.34979 5.08136 1.44132 -1.17914
17 1 5.91692 4.79392 -1.36584 -1.63809
19 1 9.60705 6.71806 -0.840158 1.19548
21 1 13.6474 5.34626 0.0785727 -0.770568
23 1 18.1886 6.47818 1.99269 0.900703
14 1 1.45098 8.27436 -0.354371 -0.791619
16 1 5.32396 8.74994 0.324033 -0.112216
18 1 9.24931 9.00738 1.07854 0.249213
20 1 12.5412 7.75657 0.925548 -1.53132
22 1 15.289 7.71804 -0.00346966 -1.58637
24 1 18.483 8.12555 -0.293958 -1.09011
25 1 0.460705 11.4366 0.65815 -0.478176
27 1 3.10356 12.4501 -0.420758 0.969628
29 1 7.35881 12.7005 0.769544 1.36022
31 1 11.189 12.6046 1.43662 1.20757
33 1 13.2939 12.6586 -0.440104 1.26724
35 1 18.0382 12.1117 1.49682 0.486269
26 1 0.937173 14.2348 -1.08839 -0.684819
28 1 5.84549 13.6312 1.11378 -1.56841
30 1 7.63119 15.0317 -1.25223 0.452251
32 1 11.2166 14.7031 -0.96858 -0.0326497
34 1 15.5564 14.9706 0.385783 0.365999
36 1 17.8189 14.8313 -1.25092 0.16776
37 1 0.209193 18.3481 0.315017 1.09234
38 1 2.78148 18.0712 -1.37192 -1.22376
39 1 6.33689 16.7278 -0.648716 -1.33736
40 1 10.2111 18.4908 -0.0434902 1.4256
41 1 13.1399 17.9503 -0.933878 -1.51677
42 1 16.9601 18.5836 -0.0459465 1.34159
ITEM: TIMESTEP
150
ITEM: NUMBER OF ATOMS
42
ITEM: BOX BOUNDS pp pp pp
0.0000000000000000e+00 2.0000000000000000e+01
0.0000000000000000e+00 2.0000000000000000e+01
-1.0000000000000001e-01 1.0000000000000001e-01
ITEM: ATOMS id type x y vx vy
1 1 0.59311 19.9651 0.768359 -0.177296
3 1 3.48289 19.5381 0.5568 1.04884
5 1 6.89673 0.374658 0.134065 0.499313
7 1 9.67322 19.7438 -0.593263 -0.650985
9 1 13.5828 19.6338 0.249944 1.29755
11 1 16.3879 1.04216 -0.825276 1.46136
2 1 1.14489 3.22174 -0.73887 0.371876
4 1 5.35988 3.45797 0.398079 0.870555
6 1 9.69932 3.13315 1.60942 0.2512
8 1 11.6583 1.69245 -0.31724 -1.66462
10 1 15.7573 2.46429 0.677713 -0.713992
12 1 17.7573 2.57406 -1.27474 -0.506321
13 1 19.2339 6.51989 -0.284727 0.888963
15 1 4.42321 5.02189 1.50044 -1.20156
17 1 5.84676 4.71059 -1.44725 -1.7006
19 1 9.56503 6.77792 -0.840646 1.19907
21 1 13.6513 5.30774 0.0785727 -0.770568
23 1 18.273 6.52412 0.969324 0.941476
14 1 1.43327 8.23478 -0.354371 -0.791619
16 1 5.34016 8.74433 0.324033 -0.112216
18 1 9.30325 9.01975 1.07903 0.245623
20 1 12.5875 7.68 0.925548 -1.53132