LAMMPS (30 Jul 2021)
OMP_NUM_THREADS environment is not set. Defaulting to 1 thread. (src/comm.cpp:98)
  using 1 OpenMP thread(s) per MPI task
# Use Lennard-Jones units, periodic boundaries and atomic model
units lj
boundary p p p
atom_style atomic


# Define the space and put atoms in
dimension 2
region simbox block 0 20 0 20 -0.1 0.1
create_box 1 simbox
Created orthogonal box = (0.0000000 0.0000000 -0.10000000) to (20.000000 20.000000 0.10000000)
  1 by 1 by 1 MPI processor grid
lattice hex 0.1
Lattice spacing in x,y,z = 3.3980885 5.8856619 3.3980885
create_atoms 1 box
Created 42 atoms
  using lattice units in orthogonal box = (0.0000000 0.0000000 -0.10000000) to (20.000000 20.000000 0.10000000)
  create_atoms CPU = 0.001 seconds

# Define properties of the atoms
mass 1 1.0
velocity all create 0.9 87287
pair_style lj/cut 2.5
pair_coeff 1 1 1.0 1.0 2.5

# Speed up simulation with neighbour lists
neighbor 0.3 bin
neigh_modify every 20 delay 0 check yes

# Define thermodynamic ensemble
# fix 1 all nvt temp 0.7 0.7 0.7
fix 1 all nve

# Define trajectory file name and content...
dump 1 all custom 10 dump.lammpstrj id type x y vx vy

# Define thermodynamic data file (log.lammps)
thermo_style custom time pe ke temp press
thermo 10

# run simulation + number of steps
run 5000
Neighbor list info ...
  update every 20 steps, delay 0 steps, check yes
  max neighbors/atom: 2000, page size: 100000
  master list distance cutoff = 2.8
  ghost atom cutoff = 2.8
  binsize = 1.4, bins = 15 15 1
  1 neighbor lists, perpetual/occasional/extra = 1 0 0
  (1) pair lj/cut, perpetual
      attributes: half, newton on
      pair build: half/bin/atomonly/newton
      stencil: half/bin/2d
      bin: standard
Per MPI rank memory allocation (min/avg/max) = 4.300 | 4.300 | 4.300 Mbytes
Time PotEng KinEng Temp Press 
           0 -0.0034330439   0.87857143          0.9  0.091175167 
        0.05 -0.0040172176    0.8791557   0.90059852  0.091055339 
         0.1 -0.0046038266   0.88012724   0.90159376  0.090978863 
        0.15 -0.0062119173   0.88173567   0.90324141  0.090657747 
         0.2 -0.0092075495   0.88434924   0.90591873  0.090032621 
        0.25 -0.013750508   0.88889346   0.91057378  0.089208509 
         0.3 -0.021747814   0.89689302   0.91876846  0.087977389 
        0.35  -0.03671685   0.91108951    0.9333112  0.086667263 
         0.4 -0.055180954   0.92793676   0.95056936  0.093673215 
        0.45  0.015766637   0.85620181   0.87708479   0.17008728 
         0.5 -0.0010140225   0.87099057   0.89223424   0.16084077 
        0.55 -0.071555934   0.94159327   0.96455896  0.089829627 
         0.6  -0.06904726   0.93797462   0.96085205  0.080092231 
        0.65  -0.07378145    0.9423205   0.96530392  0.078855802 
         0.7 -0.086748533   0.95523671   0.97853516  0.084492874 
        0.75  -0.05027824   0.91848011   0.94088207   0.13217846 
         0.8  -0.12416469   0.99179098     1.015981  0.098149061 
        0.85   -0.1548278    1.0220424    1.0469703   0.10254691 
         0.9  -0.09802486   0.96529879   0.98884266   0.17938828 
        0.95 -0.097547682   0.96477931   0.98831052   0.19701119 
           1  -0.14586639    1.0127111    1.0374113   0.14950666 
        1.05  -0.18058773    1.0475185    1.0730677   0.10072141 
         1.1  -0.18803905    1.0545996    1.0803216  0.083146021 
        1.15  -0.17127215    1.0367259    1.0620119  0.098749623 
         1.2  -0.18017157    1.0458968    1.0714065   0.10498558 
        1.25  -0.15149409    1.0173218    1.0421345   0.13835147 
         1.3  -0.16531075    1.0315225    1.0566816   0.13234298 
        1.35  -0.19698197    1.0630834    1.0890123   0.10809689 
         1.4  -0.14593147    1.0116945      1.03637   0.14447103 
        1.45  -0.13661267    1.0023789    1.0268272   0.13970268 
         1.5  -0.17062157    1.0372014    1.0624989  0.092921181 
        1.55  -0.17475306    1.0405791     1.065959  0.076646607 
         1.6  -0.18539116    1.0511797    1.0768182  0.074209274 
        1.65  -0.14386705    1.0095273    1.0341499   0.12919891 
         1.7 -0.094160187   0.96027584    0.9836972   0.18228242 
        1.75  -0.16690901    1.0322085    1.0573843   0.12511996 
         1.8  -0.15958434    1.0245775    1.0495671   0.12261484 
        1.85  -0.13706651     1.002516    1.0269676   0.13178005 
         1.9  -0.17613853    1.0415398    1.0669432  0.093662557 
        1.95   -0.1812812    1.0459451    1.0714559  0.088227574 
           2  -0.18391593    1.0477675    1.0733228  0.098242423 
        2.05  -0.15846339    1.0222905    1.0472244   0.13501299 
         2.1  -0.13498037   0.99896779    1.0233329   0.15779862 
        2.15  -0.22498006    1.0879818    1.1145179  0.089180801 
         2.2  -0.21490814    1.0787554    1.1050665   0.10271767 
        2.25  -0.21763314    1.0817686    1.1081532   0.12268175 
         2.3  -0.18794837    1.0533507    1.0790422    0.1696284 
        2.35  -0.12013282   0.98594786    1.0099954   0.23832362 
         2.4  -0.17894497      1.04347    1.0689205   0.18289206 
        2.45  -0.27051252    1.1334951    1.1611414  0.082254473 
         2.5  -0.26071789    1.1245104    1.1519375   0.07671135 
        2.55  -0.17033414    1.0342494     1.059475   0.15120475 
         2.6  -0.20738246    1.0706797    1.0967938   0.12814472 
        2.65  -0.22168621    1.0847891    1.1112474   0.11061759 
         2.7  -0.24980376    1.1120879     1.139212  0.091372352 
        2.75  -0.27126836     1.133457    1.1611022  0.094324338 
         2.8  -0.16980372    1.0317102    1.0568739   0.19763024 
        2.85  -0.19766048    1.0598283    1.0856778   0.18500128 
         2.9  -0.27210032      1.13386    1.1615151   0.11575242 
        2.95  -0.21597726    1.0783726    1.1046744   0.14153266 
           3  -0.25490399    1.1171262    1.1443732  0.099462745 
        3.05  -0.25373877    1.1154756    1.1426824  0.094862236 
         3.1  -0.17234758    1.0355888    1.0608471   0.15277338 
        3.15  -0.25673566    1.1197207     1.147031  0.098221458 
         3.2  -0.23489839    1.0982251    1.1250111   0.13310585 
        3.25  -0.14259816    1.0059115    1.0304459   0.21495511 
         3.3  -0.25120789    1.1133065    1.1404603   0.13486318 
        3.35  -0.22862927    1.0897098    1.1162881   0.14411933 
         3.4  -0.21272818    1.0738595    1.1000512   0.13957528 
        3.45   -0.2374809    1.0985797    1.1253744  0.095237707 
         3.5   -0.2183991    1.0795467    1.1058771  0.093311928 
        3.55  -0.21619307    1.0773445    1.1036212  0.088116283 
         3.6  -0.21676328    1.0782693    1.1045685  0.086421847 
        3.65  -0.19592914    1.0578355    1.0836364   0.10352256 
         3.7  -0.18790318    1.0498672    1.0754737   0.10724621 
        3.75  -0.23245447    1.0943406    1.1210319   0.07321176 
         3.8  -0.22147561    1.0840568    1.1104972  0.092841863 
        3.85  -0.17344076    1.0358549    1.0611197   0.14005341 
         3.9  -0.25974574    1.1223829    1.1497581  0.082590813 
        3.95  -0.27625531    1.1395954    1.1673904   0.08775654 
           4  -0.18720635    1.0504773    1.0760987    0.1783832 
        4.05  -0.24544717    1.1085202    1.1355573   0.15044924 
         4.1  -0.31286807      1.17582    1.2044986   0.10959151 
        4.15  -0.24579029    1.1091195    1.1361712   0.18116195 
         4.2  -0.19069199    1.0537811    1.0794831   0.23001163 
        4.25  -0.28957353     1.152521    1.1806313   0.12549238 
         4.3  -0.28226621    1.1449468    1.1728724  0.088849645 
        4.35  -0.24900808    1.1132633     1.140416  0.086490838 
         4.4  -0.22647766    1.0907427    1.1173462  0.088066358 
        4.45  -0.21733458    1.0811844    1.1075547  0.086265146 
         4.5  -0.20076388    1.0646451    1.0906121  0.092327625 
        4.55  -0.20866547    1.0721304      1.09828  0.081048757 
         4.6  -0.22219429     1.085662    1.1121415  0.068946707 
        4.65  -0.22769355    1.0907706    1.1173747  0.072134019 
         4.7  -0.22833354    1.0922111    1.1188504  0.086244972 
        4.75   -0.2518717    1.1160953    1.1433172  0.089234621 
         4.8  -0.23682173    1.1009074    1.1277588   0.12820669 
        4.85  -0.17503735     1.039615    1.0649714   0.19683755 
         4.9  -0.23676472     1.100864    1.1277144   0.15533048 
        4.95  -0.28894637    1.1527002    1.1808148   0.10495179 
           5  -0.30169878    1.1650514    1.1934673  0.092082482 
        5.05  -0.25909522    1.1228794    1.1502667   0.13512828 
         5.1   -0.2450456    1.1084088    1.1354432   0.15938619 
        5.15  -0.25210577    1.1153676    1.1425716   0.14949504 
         5.2  -0.26326345    1.1257702     1.153228   0.12885375 
        5.25   -0.2427691    1.1053249    1.1322841   0.13829665 
         5.3  -0.21875197    1.0804236    1.1067754   0.15099685 
        5.35  -0.23619104    1.0978363    1.1246128   0.12503616 
         5.4  -0.20597169    1.0688904    1.0949609   0.12595599 
        5.45  -0.22088471    1.0841155    1.1105574   0.08887142 
         5.5  -0.21559943    1.0780885    1.1043833  0.069245032 
        5.55  -0.20566859    1.0681659    1.0942187  0.064403643 
         5.6   -0.2049343    1.0677939    1.0938376  0.066486129 
        5.65  -0.18828817    1.0519008    1.0775569  0.091140031 
         5.7  -0.18284722    1.0464793    1.0720032   0.10471984 
        5.75   -0.1951666    1.0587482    1.0845714  0.098392981 
         5.8  -0.17449726    1.0378129    1.0631254   0.11265013 
        5.85  -0.21818431    1.0817926    1.1081778  0.080211893 
         5.9  -0.22370308     1.087298    1.1138174   0.08513904 
        5.95  -0.19420041    1.0571205     1.082904   0.12495133 
           6  -0.20147639    1.0637551    1.0897003   0.13833735 
        6.05  -0.18974161    1.0517772    1.0774303   0.14836435 
         6.1  -0.25680307    1.1192338    1.1465322  0.092469111 
        6.15   -0.2516778    1.1137141    1.1408778   0.10038361 
         6.2  -0.22404282     1.086156    1.1126476    0.1330918 
        6.25  -0.23900618    1.1006236    1.1274681   0.13239249 
         6.3  -0.25485219    1.1161574    1.1433808   0.12249903 
        6.35  -0.29680164    1.1572392    1.1854645  0.096746904 
         6.4  -0.25219551      1.11195    1.1390708   0.14027473 
        6.45  -0.26106903    1.1211214    1.1484658   0.13912833 
         6.5  -0.27230905     1.133623    1.1612724   0.12258023 
        6.55  -0.30504976    1.1655539    1.1939821  0.088133001 
         6.6  -0.32273666     1.183627    1.2124959  0.073134816 
        6.65  -0.29560204    1.1571978    1.1854221   0.10864598 
         6.7   -0.2457501     1.106663    1.1336547   0.15762329 
        6.75  -0.29129447    1.1517295    1.1798205   0.11267918 
         6.8  -0.29560828    1.1565133     1.184721  0.087977553 
        6.85  -0.28550476    1.1471815    1.1751615  0.082535049 
         6.9  -0.26818508    1.1294972     1.157046  0.090355881 
        6.95  -0.26327216    1.1241902    1.1516095  0.091062918 
           7  -0.26516764    1.1256809    1.1531365  0.087349291 
        7.05  -0.25077947    1.1120047    1.1391268  0.098665437 
         7.1  -0.22570328    1.0866543    1.1131581    0.1160264 
        7.15  -0.25731035     1.118888    1.1461779  0.093733418 
         7.2  -0.21121115    1.0716885    1.0978272   0.13476022 
        7.25  -0.12909242   0.98941646    1.0135486   0.19049864 
         7.3  -0.22950846    1.0898455    1.1164271  0.098004525 
        7.35  -0.22102698    1.0815589    1.1079384  0.081286752 
         7.4   -0.2171933    1.0765338    1.1027908  0.078224653 
        7.45  -0.20347425    1.0636229    1.0895649  0.092280437 
         7.5  -0.21386496      1.07401    1.1002054  0.094626177 
        7.55  -0.24340343    1.1053975    1.1323584  0.091751128 
         7.6  -0.16812837    1.0303075     1.055437    0.1719404 
        7.65  -0.21112903    1.0722926    1.0984461   0.15595725 
         7.7  -0.23491229    1.0966082    1.1233547   0.13302292 
        7.75  -0.26383131    1.1254728    1.1529234   0.10805805 
         7.8  -0.26323825    1.1240903    1.1515072   0.11666166 
        7.85  -0.16498453    1.0272894    1.0523452   0.19744529 
         7.9  -0.23242815     1.094017    1.1207004   0.14464576 
        7.95  -0.25748057    1.1186323     1.145916   0.11069076 
           8  -0.20372867    1.0663132    1.0923208   0.14057227 
        8.05  -0.26473287     1.127544    1.1550451  0.098349179 
         8.1  -0.26738486    1.1306324    1.1582088   0.10605686 
        8.15  -0.26931642    1.1325266    1.1601492   0.12270649 
         8.2  -0.24985251    1.1127527     1.139893   0.15056681 
        8.25  -0.27582692    1.1394339    1.1672249   0.13238358 
         8.3  -0.29309671    1.1566533    1.1848644    0.1164894 
        8.35  -0.24508628    1.1089266    1.1359735   0.15295574 
         8.4  -0.21330642    1.0775923    1.1038751   0.16371955 
        8.45  -0.25943716    1.1237822    1.1511915  0.098542983 
         8.5  -0.25842354    1.1232048    1.1506001  0.073483376 
        8.55  -0.21366674    1.0784727    1.1047769  0.098219252 
         8.6  -0.19225903    1.0563297    1.0820939   0.10903626 
        8.65  -0.22462056    1.0886389    1.1151911  0.077514572 
         8.7  -0.23344705    1.0978507    1.1246275  0.072072816 
        8.75  -0.20724536    1.0717044    1.0978435   0.10464712 
         8.8  -0.21673066    1.0806085    1.1069648   0.11475175 
        8.85  -0.17649936    1.0406185    1.0659995   0.15139684 
         8.9  -0.23294625    1.0964671    1.1232102   0.11324541 
        8.95  -0.13011595   0.99265126    1.0168623   0.18657613 
           9  -0.23088937    1.0938839     1.120564   0.10718371 
        9.05  -0.24140044    1.1054261    1.1323877  0.090355841 
         9.1  -0.24129693     1.105728     1.132697    0.1038638 
        9.15  -0.24533864    1.1088284     1.135873   0.13401401 
         9.2  -0.11430699   0.97781561    1.0016648   0.25470375 
        9.25  -0.24914823    1.1115633    1.1386746   0.15239922 
         9.3  -0.25288508    1.1152749    1.1424768   0.12652775 
        9.35  -0.25849255    1.1209578    1.1482982   0.11447998 
         9.4  -0.25465044    1.1166982    1.1439347    0.1299193 
        9.45  -0.13902905    1.0007766    1.0251858   0.22020846 
         9.5  -0.26528456    1.1264562    1.1539308   0.13222038 
        9.55  -0.16990561    1.0305486     1.055684   0.19582411 
         9.6  -0.25587801    1.1169542     1.144197   0.11460976 
        9.65  -0.26143312    1.1223607    1.1497354  0.084060111 
         9.7  -0.24458991      1.10514    1.1320946  0.086228103 
        9.75  -0.24234897    1.1021083     1.128989  0.089884018 
         9.8  -0.24140627    1.1003398    1.1271774   0.10257603 
        9.85  -0.20483183    1.0630363     1.088964   0.14337585 
         9.9  -0.22181006    1.0803873    1.1067382   0.13286558 
        9.95  -0.28032275    1.1392493    1.1670359  0.084542673 
          10  -0.28576323    1.1450031      1.17293  0.089469744 
       10.05  -0.22836796    1.0878919    1.1144258   0.14786051 
        10.1  -0.31253773    1.1713942    1.1999648   0.10625748 
       10.15  -0.28240414    1.1413546    1.1691925   0.15066447 
        10.2  -0.24659571    1.1061541    1.1331335   0.18985833 
       10.25  -0.25759626    1.1171487    1.1443962    0.1659354 
        10.3   -0.2982442    1.1571774    1.1854012   0.10056619 
       10.35  -0.31159817    1.1701721    1.1987129  0.060739409 
        10.4  -0.31026885    1.1684803    1.1969799  0.050044448 
       10.45  -0.32184241     1.180424    1.2092148  0.050710574 
        10.5   -0.3121077    1.1710211    1.1995825  0.085300315 
       10.55  -0.33480959    1.1932963    1.2224011   0.10284416 
        10.6  -0.33809449    1.1954546     1.224612   0.13444323 
       10.65  -0.33604591    1.1930601    1.2221591   0.15894202 
        10.7  -0.38094787    1.2374548    1.2676367   0.13335981 
       10.75  -0.36037844    1.2174734    1.2471679   0.14087697 
        10.8   -0.4136194    1.2702051    1.3011857  0.091191024 
       10.85  -0.40932063    1.2663614    1.2972482  0.094687956 
        10.9  -0.38092244    1.2370708    1.2672433   0.13608787 
       10.95  -0.35480109    1.2112899    1.2408336   0.16100399 
          11  -0.43598998    1.2937659    1.3253212  0.096499161 
       11.05  -0.40480804    1.2624858    1.2932781   0.13529632 
        11.1  -0.31168069    1.1696611    1.1981894   0.21800815 
       11.15  -0.35832151    1.2170103    1.2466935   0.16282829 
        11.2   -0.3989304    1.2578609    1.2885404   0.08963864 
       11.25  -0.38525604    1.2438104    1.2741472  0.071589745 
        11.3  -0.34431088    1.2028336     1.232171  0.094037882 
       11.35  -0.28611299    1.1440239     1.171927   0.13196198 
        11.4  -0.34002167    1.1977265    1.2269393  0.083008988 
       11.45  -0.33209877    1.1902692    1.2193002  0.082301844 
        11.5  -0.30353022    1.1621222    1.1904666   0.10603602 
       11.55  -0.30198466    1.1597833    1.1880707   0.10868707 
        11.6  -0.31597698    1.1749031    1.2035593  0.095921441 
       11.65  -0.28902794    1.1479997    1.1759997    0.1128804 
        11.7   -0.3158131    1.1743138    1.2029556  0.089208261 
       11.75  -0.34105872    1.1991984    1.2284471  0.072319884 
        11.8  -0.30937341    1.1667669    1.1952246   0.11073958 
       11.85  -0.31556785    1.1724989    1.2010965   0.12262546 
        11.9  -0.30369814    1.1606897    1.1889992   0.13818669 
       11.95   -0.2868884    1.1438623    1.1717613   0.14721823 
          12  -0.29586062     1.153654    1.1817919   0.12399547 
       12.05  -0.32774572    1.1858752     1.214799  0.083539292 
        12.1  -0.31305598    1.1700733    1.1986117  0.091473217 
       12.15  -0.31116023    1.1670351    1.1954993   0.10830389 
        12.2  -0.33917294    1.1947963    1.2239377   0.12303835 
       12.25  -0.24697329     1.103374    1.1302856   0.22211658 
        12.3  -0.31405972    1.1709236    1.1994827    0.1818692 
       12.35  -0.29119962    1.1478351    1.1758311   0.18665069 
        12.4  -0.27654893    1.1339571    1.1616145   0.17690324 
       12.45  -0.33214907    1.1909321    1.2199792   0.11124345 
        12.5  -0.32725239    1.1850226    1.2139256  0.098472311 
       12.55  -0.26949882    1.1276227    1.1551257   0.13794164 
        12.6  -0.28904103    1.1474547    1.1754414   0.11434163 
       12.65  -0.30457056    1.1635198    1.1918983  0.085224916 
        12.7  -0.29001984    1.1493858    1.1774196  0.086973104 
       12.75  -0.28501649    1.1439778    1.1718797  0.090077699 
        12.8  -0.28141047     1.140016    1.1678213  0.094962925 
       12.85  -0.30429949    1.1628701    1.1912328  0.083093273 
        12.9  -0.31677308    1.1756964     1.204372  0.087037385 
       12.95  -0.28464117    1.1432161    1.1710994   0.13034153 
          13  -0.28561254    1.1437474    1.1716437   0.14020733 
       13.05   -0.3116447    1.1697936    1.1983252   0.11418132 
        13.1  -0.32654732     1.184321    1.2132068  0.092252092 
       13.15  -0.32288801    1.1810655    1.2098719  0.090518176 
        13.2  -0.32010812    1.1786304    1.2073775   0.09647146 
       13.25  -0.28481742    1.1426379    1.1705071   0.12886308 
        13.3   -0.2832126    1.1401964    1.1680061   0.13508067 
       13.35  -0.30718735    1.1641756    1.1925701   0.11766524 
        13.4  -0.33818868    1.1959366    1.2251058  0.095517759 
       13.45  -0.32108364    1.1784009    1.2071424    0.1168501 
        13.5  -0.31868061    1.1763983     1.205091   0.12584332 
       13.55  -0.33395505    1.1920865    1.2211618   0.11890309 
        13.6  -0.32373016    1.1822804    1.2111165   0.13201025 
       13.65  -0.33526765    1.1934019    1.2225092   0.12703198 
        13.7  -0.33168975    1.1898473     1.218868   0.12684591 
       13.75  -0.34880825     1.206567    1.2359954   0.10483141 
        13.8  -0.36561768    1.2229914    1.2528205  0.083145165 
       13.85  -0.35839652    1.2157682    1.2454211   0.08749162 
        13.9   -0.3429745    1.1996159    1.2288748   0.10324993 
       13.95  -0.36199317    1.2189855    1.2487169  0.093844115 
          14  -0.38238619    1.2397671    1.2700053  0.087722164 
       14.05    -0.388773    1.2465215    1.2769244   0.10363925 
        14.1  -0.38409086     1.241794    1.2720817   0.13681922 
       14.15  -0.29163033     1.149365    1.1773983   0.22318336 
        14.2  -0.34462103    1.2013249    1.2306255   0.18148119 
       14.25  -0.37200896    1.2278324    1.2577795   0.13527583 
        14.3  -0.40594925    1.2617033    1.2924765  0.090525326 
       14.35  -0.35057508    1.2070734    1.2365142   0.12540793 
        14.4  -0.35077387    1.2075424    1.2369947   0.12375272 
       14.45  -0.31863881    1.1756441    1.2043184   0.13873341 
        14.5  -0.30536465    1.1619666    1.1903072   0.13866703 
       14.55  -0.33129772    1.1882631    1.2172452   0.10766401 
        14.6  -0.33992465    1.1972367    1.2264376  0.096673058 
       14.65  -0.28581376    1.1432452    1.1711292   0.13655815 
        14.7  -0.31344678    1.1719145    1.2004978    0.1095529 
       14.75  -0.31903503    1.1774551    1.2061735  0.096434316 
        14.8  -0.29970767    1.1586253    1.1868844   0.10535377 
       14.85  -0.33596884    1.1944261    1.2235584  0.082544995 
        14.9  -0.29455683    1.1534492    1.1815821   0.12808478 
       14.95  -0.24628258    1.1049241    1.1318734   0.17923318 
          15  -0.32317991    1.1816046    1.2104242   0.13230969 
       15.05  -0.35123444    1.2104741    1.2399978   0.11785528 
        15.1  -0.30211374    1.1617258    1.1900606   0.16402838 
       15.15  -0.33604373     1.196355    1.2255344   0.14201096 
        15.2   -0.3646709    1.2250519    1.2549312   0.12544751 
       15.25  -0.27878296    1.1377671    1.1655175   0.19554499 
        15.3  -0.29174648    1.1506651    1.1787301   0.17171193 
       15.35  -0.34486675     1.202968    1.2323087   0.10082967 
        15.4  -0.32758852     1.186482    1.2154206  0.091598537 
       15.45  -0.24660147    1.1059424    1.1329166   0.14210117 
        15.5  -0.27486037    1.1344171    1.1620858   0.11112055 
       15.55   -0.2779782    1.1380319    1.1657888   0.09728168 
        15.6  -0.22690177     1.087116    1.1136311   0.12782354 
       15.65  -0.27450375    1.1349085    1.1625892  0.083039714 
        15.7  -0.27860847    1.1386647     1.166437  0.075675794 
       15.75   -0.2434937    1.1035846    1.1305013   0.10929945 
        15.8  -0.25844115     1.119252    1.1465508   0.10226038 
       15.85  -0.27734338    1.1381627    1.1659228   0.08918356 
        15.9  -0.24785579    1.1102787    1.1373587   0.11642054 
       15.95  -0.27178351    1.1348675    1.1625472   0.10695163 
          16  -0.25342595    1.1165877    1.1438216   0.12963549 
       16.05  -0.23700049    1.1008505    1.1277005   0.15220035 
        16.1  -0.22514382    1.0887208     1.115275   0.15601228 
       16.15   -0.2701089     1.133243    1.1608831   0.10364463 
        16.2   -0.2844455    1.1476143    1.1756049  0.073786675 
       16.25  -0.27843601    1.1415895    1.1694332  0.073891435 
        16.3   -0.2392535    1.1028348    1.1297332   0.10863881 
       16.35  -0.24920737    1.1127372    1.1398771   0.10398093 
        16.4  -0.26942799    1.1325841    1.1602081  0.088601171 
       16.45    -0.265102    1.1271328    1.1546238   0.09734859 
        16.5  -0.28190678    1.1442981    1.1722078  0.095160667 
       16.55   -0.3008759    1.1624784    1.1908315  0.098582878 
        16.6  -0.27261247    1.1340114    1.1616702   0.14536946 
       16.65  -0.22017712    1.0836395    1.1100698   0.19284661 
        16.7   -0.2864168     1.149908    1.1779545   0.12816028 
       16.75  -0.30429996    1.1682321    1.1967256   0.09329183 
        16.8  -0.30041049    1.1651233    1.1935409  0.087363693 
       16.85  -0.28138794    1.1453349    1.1732699   0.10441756 
        16.9  -0.27216496    1.1357213    1.1634218   0.11306994 
       16.95  -0.27968543    1.1432415    1.1711255   0.10238547 
          17  -0.28355905    1.1475068    1.1754948  0.093247941 
       17.05  -0.28639136    1.1503314    1.1783883  0.089577942 
        17.1  -0.27182075    1.1353588    1.1630505   0.10588145 
       17.15  -0.26069923    1.1246201    1.1520499   0.12146006 
        17.2  -0.25530935    1.1181321    1.1454036   0.12817145 
       17.25  -0.28921514    1.1515518    1.1796384   0.10162371 
        17.3  -0.28807978    1.1508121    1.1788807   0.10179065 
       17.35  -0.25383585    1.1170659    1.1443115   0.12653127 
        17.4  -0.29228729    1.1557996    1.1839899  0.094389072 
       17.45  -0.31312591    1.1770223    1.2057301  0.079789506 
        17.5  -0.30038724    1.1635504    1.1919297   0.10332596 
       17.55  -0.32223974    1.1853346    1.2142452   0.10939088 
        17.6  -0.29899373    1.1619168    1.1902563   0.15049912 
       17.65  -0.26208907    1.1247968    1.1522309   0.17863838 
        17.7  -0.33792995     1.200223    1.2294967  0.099593357 
       17.75  -0.32390103    1.1862813     1.215215  0.084505922 
        17.8  -0.31966349    1.1816321    1.2104524  0.071952438 
       17.85   -0.3211605    1.1823481    1.2111858  0.064249669 
        17.9  -0.32514957    1.1855641    1.2144802  0.064422909 
       17.95  -0.33097843    1.1917817    1.2208495  0.071126919 
          18  -0.34022663    1.2006402    1.2299241  0.081627485 
       18.05  -0.35217758    1.2125945    1.2421699  0.093450923 
        18.1  -0.37142054    1.2314416    1.2614767   0.10287109 
       18.15  -0.39273667    1.2527252    1.2832795   0.11550236 
        18.2   -0.3666923    1.2265411    1.2564568   0.16412133 
       18.25  -0.37178652    1.2316725    1.2617132   0.16598936 
        18.3  -0.43861832    1.2978115    1.3294654   0.10316522 
       18.35  -0.45054341    1.3086043    1.3405215   0.08771289 
        18.4  -0.45169114    1.3095899    1.3415311  0.096632176 
       18.45   -0.3888251    1.2463158    1.2767138   0.16287639 
        18.5  -0.35120863    1.2086416    1.2381207   0.20212705 
       18.55  -0.37756817    1.2355273    1.2656621   0.16492211 
        18.6  -0.43818687    1.2960436    1.3276544  0.089988576 
       18.65  -0.40735083    1.2657724    1.2966449  0.095427536 
        18.7   -0.4346033    1.2926691    1.3241976  0.084966376 
       18.75   -0.3423441    1.2008038    1.2300917   0.16469075 
        18.8  -0.42314949    1.2821947    1.3134678   0.11924935 
       18.85  -0.37131929    1.2306922    1.2607091   0.17071027 
        18.9  -0.29803917    1.1574505     1.185681   0.22027715 
       18.95  -0.34025466    1.2003464    1.2296231    0.1642078 
          19  -0.33429952    1.1953182    1.2244723    0.1302751 
       19.05  -0.33830074    1.1992985    1.2285497  0.092103081 
        19.1  -0.33498115    1.1960151    1.2251862  0.069718247 
       19.15  -0.29743066    1.1589014    1.1871673  0.086550924 
        19.2  -0.29034821    1.1517985    1.1798911  0.086029701 
       19.25  -0.29537661     1.156435    1.1846407  0.077994824 
        19.3  -0.28063326    1.1424433    1.1703078   0.08907613 
       19.35  -0.23708564    1.0989884     1.125793   0.11913542 
        19.4   -0.2555276    1.1169378    1.1441802  0.095007365 
       19.45  -0.25451536    1.1171237    1.1443706  0.080897342 
        19.5  -0.22817177    1.0911866    1.1178009  0.091181644 
       19.55  -0.21179303     1.074431    1.1006367  0.095441209 
        19.6  -0.21825179    1.0808584    1.1072208  0.080794352 
       19.65   -0.2195317     1.082142    1.1085357  0.072141085 
        19.7    -0.212065    1.0754605    1.1016912    0.0751967 
       19.75  -0.20778707    1.0708023    1.0969195  0.079655157 
        19.8  -0.21796193     1.080967     1.107332  0.074462683 
       19.85  -0.23368495    1.0955194    1.1222393  0.068573157 
        19.9  -0.24768499    1.1095179    1.1365794   0.06980851 
       19.95  -0.25786322    1.1192865    1.1465862    0.0817649 
          20  -0.24635638    1.1089682    1.1360162    0.1124909 
       20.05  -0.25428408    1.1180564     1.145326   0.12370361 
        20.1  -0.26952971    1.1324395      1.16006   0.12210246 
       20.15  -0.25053483    1.1134533    1.1406107   0.13379995 
        20.2  -0.25394117    1.1169325    1.1441747   0.11449828 
       20.25  -0.27602207    1.1389557    1.1667351   0.07974915 
        20.3  -0.23198041    1.0946191    1.1213171   0.10037296 
       20.35  -0.24147052     1.104033    1.1309606  0.086037685 
        20.4  -0.24419179    1.1063085    1.1332917  0.083902372 
       20.45   -0.1713102    1.0329008    1.0580935   0.13942432 
        20.5   -0.2263725    1.0873513    1.1138721  0.094836296 
       20.55  -0.23498901     1.095255    1.1219686  0.080612778 
        20.6  -0.23387517    1.0945562    1.1212527  0.081031138 
       20.65  -0.25157473    1.1126109    1.1397478   0.07575224 
        20.7  -0.24740705    1.1079611    1.1349845  0.097679522 
       20.75  -0.20575601    1.0668092    1.0928289   0.14533693 
        20.8  -0.23155787    1.0929825    1.1196406   0.13070048 
       20.85  -0.26583868    1.1272185    1.1547117    0.1046469 
        20.9  -0.25411271    1.1154547    1.1426609   0.12207045 
       20.95  -0.19686093    1.0575234    1.0833166   0.17472216 
          21  -0.27334054     1.132622    1.1602469   0.12197754 
       21.05  -0.24748552    1.1072801     1.134287    0.1402086 
        21.1  -0.22463843     1.084099    1.1105404    0.1507669 
       21.15  -0.27703612    1.1368401    1.1645679   0.09541237 
        21.2  -0.26961875     1.129075    1.1566134   0.08960467 
       21.25  -0.24846166    1.1067951    1.1337901   0.10290012 
        21.3  -0.25548939    1.1137783    1.1409436  0.096942812 
       21.35  -0.27308207    1.1321721    1.1597861  0.084359245 
        21.4  -0.30252245    1.1615992    1.1899309  0.074162137 
       21.45   -0.3114152    1.1712369    1.1998036  0.097510115 
        21.5  -0.29899981    1.1588217    1.1870857   0.15129136 
       21.55   -0.2757154    1.1355351    1.1632311   0.21311833 
        21.6  -0.21628065    1.0756304    1.1018653   0.25706228 
       21.65  -0.31902786    1.1788376    1.2075897   0.13907575 
        21.7   -0.3212338    1.1798758    1.2086532  0.096475466 
       21.75  -0.29059377    1.1480824    1.1760845  0.096569865 
        21.8  -0.27639815     1.134301    1.1619669  0.094689542 
       21.85  -0.29662416    1.1533034    1.1814327  0.078166249 
        21.9  -0.25500719    1.1117635    1.1388797    0.1161734 
       21.95  -0.26573613    1.1220683    1.1494358   0.11343059 
          22  -0.31557575    1.1714825    1.2000552  0.080207909 
       22.05  -0.26162318    1.1171177    1.1443644    0.1363047 
        22.1  -0.25423978    1.1097385    1.1368053   0.14974785 
       22.15  -0.26630003    1.1229937    1.1503838    0.1264165 
        22.2  -0.26739094     1.125647    1.1531018   0.11181951 
       22.25  -0.26885083    1.1271089    1.1545993   0.10042868 
        22.3  -0.28808588    1.1463571     1.174317  0.080156562 
       22.35  -0.30613462    1.1647788     1.193188  0.070901877 
        22.4  -0.31343293    1.1716827    1.2002603  0.082434911 
       22.45  -0.31021643    1.1692655    1.1977841   0.10633946 
        22.5  -0.30560307    1.1646639    1.1930703   0.12517795 
       22.55   -0.3335812    1.1921259    1.2212022   0.11404402 
        22.6  -0.29199104    1.1505929    1.1786561   0.15421515 
       22.65  -0.17793997    1.0370181    1.0623112   0.23684961 
        22.7  -0.29113359    1.1502711    1.1783265   0.13188543 
       22.75  -0.29081081    1.1506608    1.1787257   0.10103449 
        22.8  -0.29808001    1.1574749     1.185706  0.085657689 
       22.85  -0.29568299    1.1554729    1.1836552  0.090238426 
        22.9  -0.28662444    1.1456512    1.1735939   0.10916318 
       22.95  -0.28572658    1.1450368    1.1729645   0.12746574 
          23  -0.16821892    1.0280546    1.0531291   0.21751685 
       23.05     -0.27243    1.1325144    1.1601367    0.1295391 
        23.1  -0.29147721    1.1512722     1.179352  0.090526811 
       23.15  -0.31300724    1.1724049    1.2010002  0.065884737 
        23.2  -0.30121482    1.1601717    1.1884686  0.089692716 
       23.25  -0.26661787    1.1257528    1.1532101   0.14508026 
        23.3  -0.24228846    1.1013857    1.1282488   0.18629346 
       23.35  -0.30712243     1.165169    1.1935878   0.15078021 
        23.4  -0.29346486    1.1515649    1.1796518   0.16953365 
       23.45  -0.27534809    1.1346995    1.1623751   0.18052826 
        23.5   -0.3461327    1.2058764     1.235288   0.11508993 
       23.55  -0.34509243    1.2046969    1.2340798   0.11546852 
        23.6  -0.25113387    1.1107586    1.1378503    0.1863352 
       23.65  -0.38114604    1.2396171    1.2698516  0.096738642 
        23.7  -0.35105683    1.2100389     1.239552    0.1314741 
       23.75  -0.29943122    1.1580848    1.1863308   0.18438144 
        23.8  -0.31919122    1.1785207    1.2072651    0.1654747 
       23.85  -0.36125219    1.2208739    1.2506513   0.12379513 
        23.9  -0.28114769    1.1406764    1.1684978   0.17975245 
       23.95  -0.34912671    1.2071347     1.236577   0.13386289 
          24  -0.32447826     1.182461    1.2113015   0.15096068 
       24.05   -0.3072488    1.1652751    1.1936965    0.1568031 
        24.1  -0.34290025    1.2014194    1.2307223   0.12575381 
       24.15  -0.33318413    1.1917241    1.2207905   0.12965939 
        24.2  -0.32304005    1.1815949    1.2104143   0.13192138 
       24.25  -0.27194804    1.1309626    1.1585471   0.16356389 
        24.3  -0.29746323    1.1568602    1.1850763    0.1302884 
       24.35  -0.31642102    1.1762227    1.2049111  0.097819626 
        24.4  -0.29895089    1.1586232    1.1868823   0.10170462 
       24.45  -0.21991879    1.0806485    1.1070058   0.14582144 
        24.5   -0.2797225    1.1406695    1.1684907  0.082196334 
       24.55  -0.26149585    1.1225084    1.1498866  0.077111826 
        24.6   -0.2443772    1.1053947    1.1323556  0.079458862 
       24.65  -0.23429859    1.0964767      1.12322  0.078866219 
        24.7  -0.23428002    1.0949081    1.1216131   0.07320339 
       24.75  -0.23769383    1.0979298    1.1247086  0.067006409 
        24.8   -0.2429292    1.1035524    1.1304683  0.064041407 
       24.85  -0.24951973    1.1105282    1.1376142  0.066820589 
        24.9  -0.25335754    1.1143683     1.141548  0.077963904 
       24.95  -0.26183982    1.1232545     1.150651  0.088496476 
          25  -0.29046151    1.1514239    1.1795074  0.088512893 
Loop time of 0.141131 on 1 procs for 5000 steps with 42 atoms

Performance: 15304911.825 tau/day, 35428.037 timesteps/s
77.5% CPU use with 1 MPI tasks x 1 OpenMP threads

MPI task timing breakdown:
Section |  min time  |  avg time  |  max time  |%varavg| %total
---------------------------------------------------------------
Pair    | 0.0039833  | 0.0039833  | 0.0039833  |   0.0 |  2.82
Neigh   | 0.00099683 | 0.00099683 | 0.00099683 |   0.0 |  0.71
Comm    | 0.00099802 | 0.00099802 | 0.00099802 |   0.0 |  0.71
Output  | 0.13117    | 0.13117    | 0.13117    |   0.0 | 92.94
Modify  | 0.002986   | 0.002986   | 0.002986   |   0.0 |  2.12
Other   |            | 0.000999   |            |       |  0.71

Nlocal:        42.0000 ave          42 max          42 min
Histogram: 1 0 0 0 0 0 0 0 0 0
Nghost:        35.0000 ave          35 max          35 min
Histogram: 1 0 0 0 0 0 0 0 0 0
Neighs:        51.0000 ave          51 max          51 min
Histogram: 1 0 0 0 0 0 0 0 0 0

Total # of neighbors = 51
Ave neighs/atom = 1.2142857
Neighbor list builds = 250
Dangerous builds = 250
Total wall time: 0:00:00
